5
	Energy:       0.0263821
C         -8.77979        3.88826       -0.00000
H         -7.68759        3.88826        0.00000
H         -9.14385        2.89493       -0.27141
H         -9.14386        4.61997       -0.72454
H         -9.14386        4.14987        0.99595
