9
	Energy:       6.4832120
C         -1.21780        0.02998        5.82803
C         -0.03099        0.04108        6.44704
C          1.28390        0.04445        5.73895
H         -2.14157        0.02808        6.39852
H         -1.29745        0.02257        4.74539
H         -0.00051        0.04822        7.53438
H          1.16721        0.03678        4.65061
H          1.86436       -0.83746        6.02648
H          1.85369        0.93688        6.01513
