25
terachem gradient in au, energy -2137.8427785895, grad_rms 0.026331, grad_max 0.047010 on atom 22
Tc       0.0021763909      -0.0022698246      0.0009250832
 P      -0.0070561989      -0.0406246353     -0.0020253325
 H      -0.0047716151       0.0170362421      0.0051584533
 H       0.0072107924       0.0169208616      0.0030810667
 H      -0.0004083594       0.0166397707     -0.0068644229
 P      -0.0404701108      -0.0069942688     -0.0023315749
 H       0.0169429326       0.0071834773      0.0030081465
 H       0.0172049370      -0.0046464367      0.0051593645
 H       0.0167443712      -0.0004575168     -0.0067289656
 P       0.0038235163       0.0413651656     -0.0000343791
 H       0.0073494231      -0.0171928420      0.0004280475
 H      -0.0036265837      -0.0166536754      0.0062976023
 H      -0.0029748441      -0.0166630553     -0.0065826210
 P       0.0402907563       0.0083507575      0.0010101170
 H      -0.0166261246      -0.0080379100     -0.0007641445
 H      -0.0168788647       0.0020992771      0.0065366138
 H      -0.0168956092       0.0031496219     -0.0061614386
 P      -0.0047209907       0.0012990283     -0.0465028603
 H       0.0069461050       0.0020553313      0.0174050243
 H      -0.0044797383       0.0036462367      0.0169950478
 H       0.0006289133      -0.0068599114      0.0172649310
 P      -0.0027450562       0.0029085115      0.0468400673
 H       0.0070447802       0.0006583199     -0.0175380496
 H      -0.0006380133      -0.0070693338     -0.0174838302
 H      -0.0040708093       0.0041568087     -0.0170919458
25
terachem gradient in au, energy -2137.8759839181, grad_rms 0.011572, grad_max 0.022663 on atom 18
Tc       0.0022501275      -0.0032051793      0.0008363219
 P      -0.0041907673      -0.0168592424     -0.0011907566
 H       0.0000864914       0.0073890647      0.0010003704
 H       0.0009290074       0.0073088535      0.0005501330
 H       0.0009277965       0.0075178567     -0.0008213453
 P      -0.0168940902      -0.0040383912     -0.0016621690
 H       0.0073255956       0.0008809613      0.0006453899
 H       0.0075051634       0.0000869164      0.0009657072
 H       0.0076215063       0.0009652384     -0.0007646061
 P       0.0023824698       0.0177008938     -0.0000538808
 H       0.0006951459      -0.0072603944      0.0000069292
 H      -0.0003922386      -0.0075899870      0.0006615429
 H      -0.0004016779      -0.0075632217     -0.0006979401
 P       0.0167936723       0.0056798452      0.0009835866
 H      -0.0071566421      -0.0011153417     -0.0001583609
 H      -0.0075279837      -0.0006668187      0.0008939950
 H      -0.0074661115      -0.0005051811     -0.0011360638
 P      -0.0036858606       0.0013426385     -0.0223212269
 H       0.0010047982      -0.0002750354      0.0075869936
 H      -0.0000493885       0.0002345566      0.0084296835
 H       0.0009656457      -0.0007400795      0.0078940341
 P      -0.0020167537       0.0020990376      0.0224029035
 H       0.0008639302      -0.0006825966     -0.0078329094
 H       0.0005834761      -0.0008886223     -0.0077886776
 H      -0.0001533122       0.0001842282     -0.0084296555
25
terachem gradient in au, energy -2137.8872274504, grad_rms 0.001882, grad_max 0.005102 on atom 1
Tc       0.0021482502      -0.0046152839      0.0003353155
 P       0.0012217847       0.0009185585     -0.0005526982
 H       0.0007442147      -0.0012186841     -0.0004138261
 H      -0.0006184688      -0.0011869078     -0.0000726138
 H       0.0005493705      -0.0008807798      0.0008835129
 P       0.0008535746       0.0012933242     -0.0006510188
 H      -0.0011952937      -0.0006149117     -0.0000291592
 H      -0.0012070781       0.0006590396     -0.0004408436
 H      -0.0008082970       0.0006453415      0.0008841603
 P      -0.0011943047      -0.0006432812     -0.0002050058
 H      -0.0006398087       0.0013880694     -0.0001112244
 H       0.0006766873       0.0005436910     -0.0007356755
 H       0.0006284230       0.0005772736      0.0007767554
 P      -0.0009524310       0.0010675021      0.0005097024
 H       0.0012009123       0.0008223288     -0.0000007195
 H       0.0008771383      -0.0006338309     -0.0007755845
 H       0.0010718184      -0.0007468194      0.0005251023
 P      -0.0027259291       0.0020300076      0.0002085407
 H      -0.0006002283      -0.0005278823     -0.0009613393
 H       0.0011302070      -0.0008405429      0.0003347579
 H       0.0004894580       0.0008089679     -0.0007754434
 P      -0.0022228641       0.0018472901     -0.0003338405
 H      -0.0007823337      -0.0005328771      0.0009127270
 H       0.0004485079       0.0007456712      0.0009832784
 H       0.0009066895      -0.0009052637     -0.0002948605
25
terachem gradient in au, energy -2137.8877416819, grad_rms 0.001619, grad_max 0.005541 on atom 1
Tc       0.0028602973      -0.0046531038     -0.0009351049
 P      -0.0006392470       0.0007405945      0.0004493815
 H       0.0003224867      -0.0001946991     -0.0002123601
 H      -0.0002652664      -0.0004030336     -0.0000928882
 H       0.0004526498      -0.0001134326      0.0000932443
 P       0.0005039582       0.0004849690     -0.0011228198
 H      -0.0003282906      -0.0005867881      0.0003056503
 H      -0.0002123044       0.0000021699     -0.0000225779
 H      -0.0000700645       0.0002739424      0.0002282373
 P       0.0003735287      -0.0003960418      0.0001723165
 H      -0.0001198169       0.0003663027     -0.0001144024
 H       0.0001990203       0.0000364406     -0.0002542895
 H       0.0002370097       0.0001935868      0.0000402453
 P      -0.0003706832       0.0014935668      0.0017109315
 H       0.0003525461       0.0002335957     -0.0002689742
 H       0.0000457563      -0.0002215291     -0.0003531023
 H       0.0002640314      -0.0002209184     -0.0000965673
 P      -0.0031413360       0.0025149258      0.0006579380
 H       0.0000703863      -0.0002504128     -0.0004134340
 H       0.0003274377      -0.0003362605      0.0005040143
 H       0.0004440192      -0.0000637857     -0.0003309505
 P      -0.0017533874       0.0015458657     -0.0002764081
 H       0.0000060268      -0.0002153338      0.0003681099
 H       0.0001505383       0.0000095929      0.0004473783
 H       0.0002907028      -0.0002402135     -0.0004835686
25
terachem gradient in au, energy -2137.8881211245, grad_rms 0.001861, grad_max 0.006630 on atom 1
Tc       0.0034651618      -0.0049485550     -0.0027314403
 P      -0.0003609940      -0.0002579619      0.0014201164
 H      -0.0001617284       0.0004854232     -0.0000660953
 H       0.0004064232       0.0002412776     -0.0000413625
 H       0.0001962618       0.0002079425     -0.0005388992
 P      -0.0005943351       0.0012113815     -0.0005199465
 H       0.0004632605       0.0000274393      0.0005433482
 H       0.0003101143      -0.0005245918      0.0001416777
 H       0.0003264526      -0.0001243925     -0.0003111968
 P       0.0005015881       0.0001665707      0.0004024198
 H       0.0002838949      -0.0002852551     -0.0000840447
 H      -0.0002677516      -0.0003687509      0.0001883491
 H      -0.0001077048      -0.0001319286     -0.0004590872
 P       0.0005920748       0.0003447411      0.0022730968
 H      -0.0003326217      -0.0002428098     -0.0004310472
 H      -0.0005136665       0.0002256302     -0.0000270841
 H      -0.0001420358       0.0002963423     -0.0004771078
 P      -0.0030904610       0.0031123927      0.0013628830
 H       0.0005687785       0.0000316678     -0.0000525507
 H      -0.0001976016      -0.0000617425      0.0004157601
 H       0.0002730359      -0.0006867503     -0.0001662126
 P      -0.0017930592       0.0014617614     -0.0004874354
 H       0.0005153873       0.0000526511      0.0000291376
 H      -0.0001072856      -0.0005008971      0.0000306030
 H      -0.0002331880       0.0002684143     -0.0004138805
25
terachem gradient in au, energy -2137.8847886955, grad_rms 0.005477, grad_max 0.016340 on atom 1
Tc       0.0062667886      -0.0034903841     -0.0146811200
 P      -0.0004730980      -0.0029069227     -0.0000283566
 H      -0.0031424361       0.0032949982      0.0007032689
 H       0.0023009669       0.0025360297      0.0008005705
 H      -0.0018184138       0.0007629517     -0.0024987893
 P      -0.0040524678      -0.0011489197      0.0124884501
 H       0.0035225351       0.0030185277      0.0002587350
 H       0.0024590729      -0.0016470683      0.0001273808
 H       0.0012898572      -0.0013806545     -0.0030259624
 P       0.0040984471       0.0013983724      0.0040375112
 H       0.0018987659      -0.0031791125      0.0004805886
 H      -0.0018720412      -0.0005738420      0.0030455873
 H      -0.0018941973      -0.0009741705     -0.0017224436
 P       0.0028129298       0.0010209618     -0.0008681352
 H      -0.0026086643      -0.0027603983      0.0000063950
 H      -0.0029581260       0.0018394396      0.0018103187
 H      -0.0017736980       0.0017983382     -0.0009154067
 P       0.0028994011      -0.0021797869      0.0009837896
 H       0.0019307429       0.0008820830      0.0013885273
 H      -0.0018278070       0.0009147197     -0.0005876846
 H      -0.0009470340      -0.0018807162      0.0007537044
 P      -0.0048332129       0.0030969312     -0.0001458468
 H       0.0019206217       0.0007401479     -0.0019286957
 H      -0.0007510335      -0.0017321247     -0.0024958896
 H      -0.0024478994       0.0025505995      0.0020135027
25
terachem gradient in au, energy -2137.8884795947, grad_rms 0.003335, grad_max 0.011611 on atom 1
Tc       0.0054563581      -0.0053638618     -0.0087332546
 P      -0.0000802252      -0.0017673020      0.0014951937
 H      -0.0015326153       0.0019057852      0.0002893189
 H       0.0013468004       0.0014201193      0.0002436917
 H      -0.0006899577       0.0004790023     -0.0015194028
 P      -0.0022705992       0.0007235866      0.0051408781
 H       0.0020581987       0.0014418284      0.0005211540
 H       0.0014143064      -0.0010815551      0.0000075258
 H       0.0008068501      -0.0007931956     -0.0016100454
 P       0.0018137797       0.0007642409      0.0017529485
 H       0.0010013501      -0.0017697112      0.0001397764
 H      -0.0011273630      -0.0005895009      0.0014762100
 H      -0.0009244868      -0.0005728170     -0.0010921090
 P       0.0020691690       0.0000105523      0.0013815205
 H      -0.0015386463      -0.0013852214     -0.0003642163
 H      -0.0017209325       0.0010559932      0.0008095229
 H      -0.0009123562       0.0010400987     -0.0006820288
 P      -0.0011785080       0.0020273858      0.0022683242
 H       0.0012426483       0.0004291640      0.0006382398
 H      -0.0011336026       0.0004300445     -0.0001868776
 H      -0.0002069628      -0.0013640106      0.0001638839
 P      -0.0034575354       0.0025046811     -0.0008155219
 H       0.0012533510       0.0003266640     -0.0008411438
 H      -0.0003733058      -0.0011862745     -0.0011167176
 H      -0.0013157149       0.0013143040      0.0006331287
25
terachem gradient in au, energy -2137.8892443260, grad_rms 0.002954, grad_max 0.011450 on atom 1
Tc       0.0064725452      -0.0064669656     -0.0068838061
 P       0.0002603799      -0.0009551036      0.0014832309
 H      -0.0008374815       0.0011060455      0.0000857071
 H       0.0007927715       0.0009394947      0.0001246693
 H      -0.0002836037       0.0002616779     -0.0008667312
 P      -0.0012982496       0.0013134008      0.0032244300
 H       0.0012544424       0.0007667531      0.0003341807
 H       0.0008762125      -0.0007996811     -0.0000170234
 H       0.0004195097      -0.0004616068     -0.0009895879
 P       0.0007135544       0.0001856741      0.0011668655
 H       0.0005613653      -0.0010576491      0.0000811149
 H      -0.0006610676      -0.0003102265      0.0007537016
 H      -0.0005598001      -0.0003937822     -0.0006514938
 P       0.0011421572      -0.0003467615      0.0019582703
 H      -0.0009733392      -0.0007736104     -0.0002827565
 H      -0.0010574785       0.0005960963      0.0004274084
 H      -0.0004800943       0.0006819687     -0.0004859886
 P      -0.0028913238       0.0032804709      0.0011892344
 H       0.0007420657       0.0002420297      0.0004138477
 H      -0.0006118974       0.0001425379      0.0001742895
 H       0.0000031162      -0.0009061875      0.0000242955
 P      -0.0035436197       0.0028619674     -0.0002955628
 H       0.0007617331       0.0002314502     -0.0005121936
 H      -0.0002726209      -0.0006929328     -0.0006453448
 H      -0.0005292763       0.0005549401      0.0001892432
25
terachem gradient in au, energy -2137.8913010377, grad_rms 0.003895, grad_max 0.015642 on atom 1
Tc       0.0112067734      -0.0088611310     -0.0063693252
 P       0.0010273196       0.0002055233      0.0009100540
 H      -0.0001928959      -0.0000458392     -0.0000873196
 H       0.0000085729       0.0004435328      0.0001963561
 H       0.0000413310      -0.0001182449     -0.0000117817
 P       0.0002657864       0.0011119660      0.0031944509
 H       0.0000683447       0.0001793018     -0.0002333189
 H       0.0002552901      -0.0003738638     -0.0001387084
 H      -0.0003478197      -0.0000191489     -0.0004074298
 P      -0.0007013971      -0.0007981346      0.0009264708
 H      -0.0000143767      -0.0001849548      0.0001407492
 H      -0.0000261290       0.0003981570      0.0000298114
 H      -0.0002586009      -0.0001338644      0.0000036849
 P      -0.0004679812      -0.0012701887      0.0022942891
 H      -0.0002595417      -0.0000166471      0.0001411239
 H      -0.0000906500      -0.0000144849      0.0001484613
 H       0.0000963809       0.0002490145     -0.0001684828
 P      -0.0058079750       0.0048569010     -0.0014529755
 H      -0.0000744305       0.0000495723      0.0003659526
 H       0.0001495858      -0.0002123887      0.0009335826
 H       0.0001606070      -0.0000761008      0.0000945399
 P      -0.0052303862       0.0046440636      0.0005848692
 H      -0.0000148486       0.0001840271     -0.0003995907
 H      -0.0002166121       0.0001399909     -0.0003990118
 H       0.0004236530      -0.0003370588     -0.0002964522
25
terachem gradient in au, energy -2137.8703887034, grad_rms 0.017206, grad_max 0.027905 on atom 6
Tc       0.0050028223      -0.0065088613     -0.0156897083
 P      -0.0010492779      -0.0233410388      0.0004437890
 H      -0.0103956205       0.0133414725      0.0075400157
 H       0.0110581260       0.0086938904      0.0060486963
 H      -0.0059111473       0.0061125635     -0.0142364457
 P      -0.0254738801      -0.0067457804      0.0091793623
 H       0.0147988018       0.0119183700      0.0045643038
 H       0.0078602568      -0.0052941751      0.0062308263
 H       0.0097194135      -0.0031610247     -0.0121681581
 P       0.0081565187       0.0193587569     -0.0024043276
 H       0.0115327157      -0.0114965349      0.0021906345
 H      -0.0075887858      -0.0093613006      0.0150219794
 H      -0.0057888140      -0.0048942659     -0.0110613773
 P       0.0243035669       0.0080728395     -0.0014127454
 H      -0.0101801647      -0.0138540819     -0.0004683351
 H      -0.0115278290       0.0057972355      0.0086278255
 H      -0.0077683293       0.0063648069     -0.0073431035
 P      -0.0025985856       0.0043876168      0.0079993143
 H       0.0134921797       0.0041703245      0.0035269091
 H      -0.0088734316       0.0064725235     -0.0031270920
 H      -0.0005914331      -0.0143130964      0.0023416524
 P      -0.0038190894       0.0020466162      0.0023927513
 H       0.0128824940       0.0018542919     -0.0045170779
 H      -0.0021763266      -0.0138632894     -0.0062721646
 H      -0.0150641803       0.0142421417      0.0025924754
25
terachem gradient in au, energy -2137.8866438414, grad_rms 0.009412, grad_max 0.016335 on atom 1
Tc       0.0084169494      -0.0080199915     -0.0114739209
 P      -0.0003067030      -0.0115752879      0.0001704359
 H      -0.0056696685       0.0067754435      0.0043113562
 H       0.0059115227       0.0045055674      0.0033325030
 H      -0.0029469044       0.0034809000     -0.0074204113
 P      -0.0121842861      -0.0040875976      0.0064885482
 H       0.0074712314       0.0069802335      0.0021928440
 H       0.0042744360      -0.0028315998      0.0031134276
 H       0.0048013383      -0.0015015021     -0.0067461593
 P       0.0042760117       0.0092606723     -0.0012406795
 H       0.0060665226      -0.0061376289      0.0011952596
 H      -0.0042912172      -0.0045623898      0.0080351439
 H      -0.0031964424      -0.0025752601     -0.0057141741
 P       0.0115884210       0.0041537661     -0.0001892734
 H      -0.0052374000      -0.0075314221     -0.0000027498
 H      -0.0058169573       0.0028934239      0.0049686822
 H      -0.0041362589       0.0032790474     -0.0038369294
 P      -0.0044133769       0.0048787598      0.0034875846
 H       0.0069144758       0.0022130456      0.0022364578
 H      -0.0045484482       0.0033298945     -0.0008964927
 H      -0.0002599407      -0.0074599497      0.0014938566
 P      -0.0045102832       0.0033441204      0.0022362556
 H       0.0067197231       0.0010256468     -0.0024552298
 H      -0.0012131520      -0.0072063875     -0.0034219836
 H      -0.0077095924       0.0073684961      0.0001356485
25
terachem gradient in au, energy -2137.8905093614, grad_rms 0.005748, grad_max 0.015935 on atom 1
Tc       0.0099753418      -0.0085656477     -0.0090032924
 P       0.0002762544      -0.0056419506      0.0004248669
 H      -0.0030154831       0.0033665272      0.0022417098
 H       0.0030192709       0.0024267994      0.0018068178
 H      -0.0014447411       0.0018008813     -0.0037694976
 P      -0.0058059907      -0.0018174130      0.0048931126
 H       0.0037479967       0.0037786282      0.0009753514
 H       0.0022943286      -0.0015889628      0.0014830552
 H       0.0022377240      -0.0007273431     -0.0036603999
 P       0.0019449349       0.0041899278     -0.0003103233
 H       0.0030860999      -0.0032116073      0.0006785046
 H      -0.0022687698      -0.0020887178      0.0041437834
 H      -0.0017640850      -0.0013553381     -0.0028737793
 P       0.0054144292       0.0016569674      0.0008798066
 H      -0.0027263327      -0.0038991024      0.0001068488
 H      -0.0029290715       0.0014326647      0.0026790642
 H      -0.0020800058       0.0017399311     -0.0020010613
 P      -0.0052084833       0.0049678074      0.0010925059
 H       0.0034531769       0.0011436103      0.0013582406
 H      -0.0022314554       0.0015964443      0.0000664968
 H      -0.0000582900      -0.0038134578      0.0008529563
 P      -0.0048720492       0.0039976668      0.0015884381
 H       0.0033987259       0.0006025960     -0.0014049950
 H      -0.0007160344      -0.0035982745     -0.0019122836
 H      -0.0037274920       0.0036073636     -0.0003359260
25
terachem gradient in au, energy -2137.8913160704, grad_rms 0.004371, grad_max 0.015808 on atom 1
Tc       0.0106626481      -0.0087650700     -0.0077064973
 P       0.0006191869      -0.0026545401      0.0006479987
 H      -0.0016041017       0.0016332143      0.0010863322
 H       0.0014924329       0.0013942003      0.0009984939
 H      -0.0006909437       0.0008602062     -0.0018762481
 P      -0.0026743893      -0.0004385353      0.0040488202
 H       0.0018740069       0.0019892732      0.0003549254
 H       0.0012568173      -0.0009617686      0.0006474560
 H       0.0009297862      -0.0003545785     -0.0020166601
 P       0.0006678271       0.0016494255      0.0002613500
 H       0.0015250639      -0.0016824362      0.0004129731
 H      -0.0011598428      -0.0008355694      0.0020867802
 H      -0.0010099988      -0.0007272480     -0.0014091925
 P       0.0023822268       0.0002566427      0.0015526187
 H      -0.0014598706      -0.0019567893      0.0001312262
 H      -0.0014785579       0.0006962987      0.0014144040
 H      -0.0009887009       0.0009699658     -0.0010595321
 P      -0.0055456554       0.0049498007     -0.0001264001
 H       0.0016749716       0.0005846283      0.0008572182
 H      -0.0010324336       0.0006865064      0.0005050537
 H       0.0000552460      -0.0019289854      0.0004766331
 P      -0.0050460569       0.0043182162      0.0011015579
 H       0.0016733977       0.0003876254     -0.0008747052
 H      -0.0004620676      -0.0017182592     -0.0011324086
 H      -0.0016609930       0.0016477766     -0.0003821975
25
terachem gradient in au, energy -2137.8920448075, grad_rms 0.004121, grad_max 0.016431 on atom 1
Tc       0.0115454420      -0.0091409238     -0.0072895715
 P       0.0004660305      -0.0010205341      0.0007641824
 H      -0.0007706424       0.0007111618      0.0003504275
 H       0.0005476617       0.0006493823      0.0006024592
 H      -0.0003429548       0.0003649272     -0.0008168115
 P      -0.0009958307      -0.0002175332      0.0036860687
 H       0.0008689490       0.0008695332     -0.0000698725
 H       0.0006232274      -0.0005205103      0.0001075090
 H       0.0002793917      -0.0000766007     -0.0008949746
 P       0.0004370151       0.0002903528      0.0004013039
 H       0.0005691157      -0.0007922188      0.0003385723
 H      -0.0004871567      -0.0002700540      0.0009354856
 H      -0.0006062360      -0.0002489543     -0.0005250215
 P       0.0008252737      -0.0001090117      0.0019446575
 H      -0.0006748862      -0.0007802456      0.0001305633
 H      -0.0006866860       0.0002706703      0.0005664146
 H      -0.0004221680       0.0004423447     -0.0004452538
 P      -0.0060415129       0.0053150994      0.0004349805
 H       0.0008041248       0.0001022455      0.0003619141
 H      -0.0004351164       0.0002138309      0.0004409758
 H       0.0002638634      -0.0009257286      0.0001193680
 P      -0.0054883386       0.0046402712     -0.0000208677
 H       0.0007085563       0.0001668253     -0.0003479488
 H      -0.0002352407      -0.0007056071     -0.0005043316
 H      -0.0007518824       0.0007712782     -0.0002702289
25
terachem gradient in au, energy -2137.8931517259, grad_rms 0.004335, grad_max 0.017308 on atom 1
Tc       0.0126948764      -0.0095881034     -0.0068183486
 P       0.0003633345       0.0001380535      0.0007626485
 H      -0.0001706940      -0.0000119769     -0.0001846202
 H      -0.0001613658       0.0000538926      0.0003345209
 H      -0.0000631826      -0.0000058915      0.0000067241
 P       0.0001674131      -0.0003238371      0.0033108209
 H       0.0000345125       0.0000684512     -0.0004178000
 H       0.0000901281      -0.0001989992     -0.0002749773
 H      -0.0001222237       0.0001377298     -0.0000769184
 P       0.0003371288      -0.0005364418      0.0005134748
 H      -0.0001116247      -0.0000914992      0.0002861931
 H       0.0000189130       0.0001224182      0.0000517159
 H      -0.0003329392       0.0000967685      0.0001535353
 P      -0.0001801980      -0.0004094917      0.0022409606
 H      -0.0000651414       0.0000633444      0.0001280099
 H      -0.0000536497      -0.0000217407     -0.0000234202
 H       0.0000006596      -0.0000054352      0.0000047902
 P      -0.0069702360       0.0058758588      0.0008600683
 H       0.0001993536      -0.0003451648     -0.0000587989
 H       0.0000588847      -0.0001795145      0.0004084310
 H       0.0005029203      -0.0001635361     -0.0001344567
 P      -0.0062161406       0.0052583961     -0.0009379509
 H       0.0000127377      -0.0000122123      0.0000439621
 H      -0.0000504934       0.0000354930     -0.0000089688
 H       0.0000170271       0.0000434384     -0.0001695949
25
terachem gradient in au, energy -2137.8947006058, grad_rms 0.004636, grad_max 0.017662 on atom 1
Tc       0.0135153978      -0.0096618990     -0.0059951906
 P       0.0003764745       0.0011180180      0.0007845063
 H       0.0003712190      -0.0006803443     -0.0006861798
 H      -0.0008189850      -0.0004917162      0.0000938934
 H       0.0001922589      -0.0003397164      0.0007654160
 P       0.0011912805      -0.0005710104      0.0026425893
 H      -0.0007673986      -0.0006712049     -0.0007286795
 H      -0.0004481634       0.0000923165     -0.0005927002
 H      -0.0004527977       0.0003353615      0.0007154148
 P       0.0003438385      -0.0011674943      0.0005169494
 H      -0.0007447229       0.0005670416      0.0002296477
 H       0.0004797826       0.0004819567     -0.0007841783
 H      -0.0000860931       0.0003943827      0.0007863230
 P      -0.0009818885      -0.0008930215      0.0024447593
 H       0.0004931639       0.0008531232      0.0001302108
 H       0.0005630221      -0.0002574215     -0.0005518422
 H       0.0003705165      -0.0004273486      0.0004145095
 P      -0.0079326351       0.0064168965      0.0014121751
 H      -0.0003311812      -0.0008091525     -0.0004582576
 H       0.0004999284      -0.0005170071      0.0003480526
 H       0.0007778724       0.0005415264     -0.0003611347
 P      -0.0068130546       0.0057517125     -0.0019740395
 H      -0.0006355165      -0.0001882054      0.0004036593
 H       0.0001236114       0.0007302313      0.0004515238
 H       0.0007140695      -0.0006070249     -0.0000074272
25
terachem gradient in au, energy -2137.8968776665, grad_rms 0.004960, grad_max 0.016936 on atom 1
Tc       0.0134691382      -0.0090945185     -0.0047643826
 P       0.0003144909       0.0023554655      0.0008686490
 H       0.0010655875      -0.0014566880     -0.0013905474
 H      -0.0016031045      -0.0011469527     -0.0002609293
 H       0.0005204287      -0.0007716007      0.0017609732
 P       0.0023924441      -0.0007817019      0.0014477758
 H      -0.0017144815      -0.0016368791     -0.0010526580
 H      -0.0011572957       0.0004277953     -0.0009497185
 H      -0.0008180824       0.0005125814      0.0017067764
 P       0.0005686880      -0.0018979016      0.0005270835
 H      -0.0015258775       0.0013645668      0.0001157298
 H       0.0010186186       0.0009341449     -0.0019153058
 H       0.0002139686       0.0007119565      0.0015947726
 P      -0.0019066274      -0.0014632347      0.0026052505
 H       0.0011833825       0.0018075256      0.0001004577
 H       0.0012972800      -0.0005016844     -0.0012517710
 H       0.0007879011      -0.0009314393      0.0009452919
 P      -0.0087263341       0.0068224989      0.0023480322
 H      -0.0009890831      -0.0014167103     -0.0009846731
 H       0.0010693693      -0.0009715677      0.0001426849
 H       0.0011181754       0.0014374040     -0.0006757952
 P      -0.0071529284       0.0059732798     -0.0031918074
 H      -0.0014370489      -0.0003914390      0.0008400226
 H       0.0003230783       0.0016163360      0.0010238779
 H       0.0016883120      -0.0015012357      0.0004102101
25
terachem gradient in au, energy -2137.8998340451, grad_rms 0.004734, grad_max 0.013524 on atom 1
Tc       0.0113977536      -0.0067678989     -0.0026806523
 P       0.0003692629       0.0030174362      0.0008806310
 H       0.0015411574      -0.0019851055     -0.0018644711
 H      -0.0021291669      -0.0016434975     -0.0004748336
 H       0.0007434916      -0.0010474604      0.0024288339
 P       0.0030352353      -0.0013994456     -0.0005150750
 H      -0.0024376953      -0.0023030805     -0.0011913100
 H      -0.0018724097       0.0007022629     -0.0010512139
 H      -0.0010419273       0.0006225731      0.0023903605
 P       0.0011054634      -0.0019323440      0.0001558823
 H      -0.0020036989       0.0019929709      0.0000129105
 H       0.0013044748       0.0012258364     -0.0027322099
 H       0.0004178446       0.0008685245      0.0021745571
 P      -0.0024393493      -0.0020956588      0.0022405415
 H       0.0017101334       0.0024028433      0.0001732584
 H       0.0019100681      -0.0006390063     -0.0016794534
 H       0.0010474763      -0.0012577571      0.0013409420
 P      -0.0087732448       0.0064633869      0.0029046890
 H      -0.0014520851      -0.0018422630     -0.0013418466
 H       0.0014858291      -0.0012240386     -0.0002044661
 H       0.0013849572       0.0021085706     -0.0008129742
 P      -0.0059844374       0.0049647070     -0.0036135850
 H      -0.0019846715      -0.0004751158      0.0011124833
 H       0.0003662570       0.0022472728      0.0014027283
 H       0.0022992820      -0.0020037131      0.0009442738
25
terachem gradient in au, energy -2137.9029395440, grad_rms 0.004216, grad_max 0.008809 on atom 18
Tc       0.0070843517      -0.0038746659     -0.0020637224
 P      -0.0000658024       0.0038504063      0.0007780137
 H       0.0019549668      -0.0021640256     -0.0022785075
 H      -0.0023919917      -0.0019418238     -0.0007077437
 H       0.0010182086      -0.0012423720      0.0030519158
 P       0.0035226133      -0.0017903941     -0.0014337677
 H      -0.0026530208      -0.0028636446     -0.0011624506
 H      -0.0023219343       0.0009621072     -0.0009589996
 H      -0.0010520431       0.0004416374      0.0028761827
 P       0.0021891992      -0.0021010152      0.0007025211
 H      -0.0022373321       0.0023553685     -0.0002349988
 H       0.0014091782       0.0012984780     -0.0035121506
 H       0.0006010793       0.0008126444      0.0025618696
 P      -0.0030870475      -0.0018810420      0.0014922931
 H       0.0021150398       0.0026457969      0.0002790851
 H       0.0021196284      -0.0007493364     -0.0020741935
 H       0.0010890011      -0.0014573939      0.0016827096
 P      -0.0067520494       0.0050354090      0.0025793178
 H      -0.0017791716      -0.0020197311     -0.0016902485
 H       0.0018314699      -0.0014702990     -0.0008395917
 H       0.0013193981       0.0026130413     -0.0009839146
 P      -0.0048815368       0.0040310007     -0.0026618699
 H      -0.0023612817      -0.0004980159      0.0012383621
 H       0.0003130847       0.0026283457      0.0016867360
 H       0.0030159924      -0.0026204763      0.0016731519
25