43
 energy: -70.666461524246 gnorm: 0.000194644063 xtb: 6.4.1 (conda-forge)
Fe        0.00000000000000    0.00000000000000    0.00000000000000
O         0.00000000000000    2.13708900000000    0.00000000000000
C         0.81458830824357    2.77639301601411   -0.72022196736850
C         0.33797488228674    4.10492875558811   -1.30958534673818
C         2.11215169871673    2.37250764241709   -1.05194508538237
C         2.65416674347142    1.11838037861260   -0.72996861788494
O         2.12314900000000    0.24369200000000    0.00000000000000
C         4.00808792270192    0.78956253832883   -1.35983499247764
H        -0.73557079671339    4.19442551399201   -1.16472829787984
H         0.56915080275709    4.16065350768932   -2.37132230748341
H         0.83455906120816    4.93298142954991   -0.80441035452405
H         4.72438062401108    1.58661241955556   -1.16804638556372
H         3.89282888345584    0.67774203254909   -2.43640547285759
H         4.37815974090719   -0.14401793186153   -0.94517346016681
H         2.69652112439619    3.02600454227474   -1.68598225920900
O         0.00000000000000   -2.13708900000000    0.00000000000000
C        -0.60322010957154   -2.77874601876898    0.89756625999342
C        -1.12117921716552   -4.17253294911576    0.53382324042796
C        -0.88234112622381   -2.34524291523346    2.19980518063919
C        -0.63282180017195   -1.05875499793510    2.70192856294657
O         0.00000000000000   -0.13585000000000    2.13276700000000
C        -1.21687689716447   -0.76204006094278    4.08501142732266
H        -0.81806103214291   -4.41291774903769   -0.48159763332917
H        -2.20748334545871   -4.19349286093983    0.59727066517128
H        -0.71965580020838   -4.91691610588924    1.21936844047079
H        -0.89747098396264   -1.51384388155501    4.80450224272804
H        -2.30397028245367   -0.77093074627455    4.03352412163873
H        -0.88437590538647    0.21987181576120    4.41030270630705
H        -1.42859243985269   -3.02672712814485    2.83911018674758
O        -2.13708900000000    0.00000000000000    0.00000000000000
C        -2.74313445566002    0.59664284445740   -0.93038072043123
C        -4.13893582618919    1.13756158909401   -0.61433920941450
C        -2.27817012986978    0.84478587182599   -2.22936929089295
C        -0.98569173085323    0.60314674493009   -2.72224723534268
O        -0.04805500000000    0.00000000000000   -2.13654900000000
C        -0.68680464726482    1.17935527281750   -4.10753825782477
H        -4.39973811266364    0.87549962327544    0.40745806190673
H        -4.87337226088060    0.71288282331409   -1.29710688176729
H        -4.15342643957097    2.22053654984648   -0.72043314299158
H        -1.41375231687641    0.82232762849815   -4.83500850700260
H         0.31187335584904    0.87756196946452   -4.41184083753963
H        -0.73551428453046    2.26642731477940   -4.07473315861443
H        -2.95190804906221    1.37876768008577   -2.88810138515982
