11
	Energy:       9.4852985
C          1.66302       -2.49157       -0.12928
N          2.72574       -2.37953       -1.12347
H          2.86368       -3.29174       -1.61530
H          3.62181       -2.09072       -0.66381
C          2.06340       -3.39899        1.04239
H          0.74723       -2.89521       -0.61494
H          1.43281       -1.47754        0.26191
O          1.07576       -3.37649        2.03513
H          0.31784       -3.92516        1.70406
H          3.00841       -3.03120        1.49665
H          2.24702       -4.44253        0.69820
