25
 energy: -0.638218449380 gnorm: 0.000766402730 xtb: 6.4.1 (conda-forge)
Fe        0.00000000000000    0.00000000000000    0.00000000000000
N         0.00000000000000    2.09542800000000    0.00000000000000
H        -0.82080186143562    2.50527446526868    0.44973721551688
H         0.02576496179515    2.50678967097503   -0.93468090943684
H         0.79936204123823    2.50544817592724    0.48675709639149
N         2.09542800000000    0.00000000000000    0.00000000000000
H         2.50369629747327    0.80491747508685    0.47901351713135
H         2.51033406261084    0.01205631503559   -0.93334124544664
H         2.50499027126743   -0.81509671910406    0.46031407685057
N         0.00000000000000   -2.09542800000000    0.00000000000000
H         0.78797511804060   -2.50615989364815    0.50425658296994
H         0.04539713840303   -2.50207295967532   -0.93614709796688
H        -0.83106772604400   -2.50430099471248    0.43127201282172
N        -2.09542800000000    0.00000000000000    0.00000000000000
H        -2.50634743070588   -0.77074193589483    0.53016533825053
H        -2.49984312219747   -0.07384301370294   -0.93529053816795
H        -2.50569875365566    0.84547256895333    0.40076854433769
N         0.00000000000000    0.00000000000000    2.09904400000000
H         0.55916187816025   -0.75261732265274    2.50477126462667
H        -0.93139575997895   -0.10730865832641    2.50479334205332
H         0.37220983137123    0.86064180100126    2.50456309801074
N         0.00000000000000    0.00000000000000   -2.08539000000000
H        -0.58600525457344   -0.73179451881683   -2.49267696052171
H         0.92252725689870   -0.14168341998982   -2.50087804857674
H        -0.34528787704422    0.86935049507090   -2.49675319339367
