43
 energy: -70.655416615159 gnorm: 0.001005711857 xtb: 6.4.1 (conda-forge)
Fe        0.00000000000000    0.00000000000000    0.00000000000000
O        -0.02559300000000    2.15752900000000   -0.00012300000000
C         1.01407600000000    2.77837000000000    0.32171300000000
C         0.84739600000000    4.21713000000000    0.82489500000000
C         2.34989100000000    2.33367600000000    0.26834800000000
C         2.82280400000000    1.02804300000000    0.09412000000000
O         2.15525900000000   -0.03046800000000    0.00089100000000
C         4.34950900000000    0.87975500000000    0.06870900000000
H        -0.21015900000000    4.45993800000000    0.87456600000000
H         1.34560600000000    4.90920300000000    0.14771900000000
H         1.29012800000000    4.32255800000000    1.81328300000000
H         4.76970500000000    1.47872100000000   -0.73693800000000
H         4.60012800000000   -0.16558800000000   -0.09197400000000
H         4.78194600000000    1.21230600000000    1.01040800000000
H         3.10577500000000    3.08801900000000    0.45179700000000
O         0.00038400000000   -2.15608500000000   -0.02396000000000
C        -0.20913600000000   -2.80118200000000    1.03044600000000
C        -0.62570400000000   -4.26878900000000    0.87784300000000
C        -0.07348900000000   -2.35322600000000    2.35492600000000
C         0.09717700000000   -1.03716400000000    2.81026000000000
O         0.00136400000000    0.02815200000000    2.15408400000000
C         0.39391800000000   -0.90686900000000    4.30925300000000
H        -0.78740100000000   -4.48504400000000   -0.17485800000000
H        -1.54116000000000   -4.46271500000000    1.43320700000000
H         0.15684100000000   -4.92165900000000    1.26067000000000
H        -0.43515400000000   -1.29985500000000    4.89465400000000
H         0.54216300000000    0.14121400000000    4.55472100000000
H         1.29196600000000   -1.46782300000000    4.56150700000000
H        -0.12146400000000   -3.11793100000000    3.12084300000000
O        -2.15747100000000    0.00012900000000    0.02524500000000
C        -2.80665900000000   -0.27910000000000   -1.01244500000000
C        -4.30616600000000   -0.54582100000000   -0.82975900000000
C        -2.32835400000000   -0.40703500000000   -2.32334100000000
C        -1.00058200000000   -0.33646800000000   -2.78378400000000
O         0.03159400000000    0.00583300000000   -2.15650500000000
C        -0.82228200000000   -0.74668700000000   -4.25064000000000
H        -4.55193900000000   -0.46750500000000    0.22624900000000
H        -4.56845900000000   -1.53887400000000   -1.18896600000000
H        -4.88505600000000    0.18890300000000   -1.38686100000000
H        -1.39036300000000   -0.07697100000000   -4.89460100000000
H        -1.18183000000000   -1.76185000000000   -4.40608800000000
H         0.23027000000000   -0.69208300000000   -4.51334900000000
H        -3.06767200000000   -0.68387900000000   -3.06572300000000
