46
 energy: -76.698765837354 gnorm: 0.000279113471 xtb: 6.4.1 (conda-forge)
Fe        0.00000000000000   -0.00000000000000   -0.00000000000000
C        -4.10769915817978    0.55476215102142    0.00030711237012
C        -5.08667714001991    1.50632034837151   -0.00581601380295
C        -4.75929993333590    2.87033622314319   -0.01740427249110
C        -3.44379735058108    3.24240339074970   -0.02053461960708
C        -2.40072115629018    2.29379376434299   -0.01133071058743
C        -2.72368837150743    0.89145023694669   -0.00451891722113
C        -1.06199881490701    2.74492540574691   -0.01570196997678
N        -0.04965900000000    1.93716100000000    0.01819500000000
C         1.29899355682957    2.31108734809258    0.02777734866927
C         2.31857732880880    1.29383907596507    0.00313182771950
N         1.94907500000000   -0.05557000000000   -0.01819500000000
C         2.75628125455716   -1.06722882598066   -0.05992981954045
C         2.29656390369953   -2.40138296762029   -0.03072980046136
C         0.89114584152512   -2.70888190324128    0.02344189270836
C         0.54479650836567   -4.08985917794402    0.07420665272331
C         1.48817163305208   -5.07678367843556    0.06273653121592
C         2.85440037410560   -4.76309178549244    0.00084115610743
C         3.23680941298896   -3.45174911494843   -0.04460717173949
O        -0.04229700000000   -1.83338300000000    0.01819500000000
H         3.83650972189237   -0.93164507570528   -0.11046687272650
H        -0.92430582223192    3.82558634997521   -0.04722157363172
H        -3.17845004096539    4.29165633409564   -0.02807097591027
H        -5.54288641148547    3.61272994962766   -0.02369992405546
H        -6.12639719824899    1.21023183345481   -0.00317969797906
O        -1.85711900000001   -0.04820800000000   -0.01819500000000
H         4.28718190458072   -3.19436946010683   -0.08894506603615
H         3.58971172969470   -5.55329811394143   -0.00877172323416
H         1.18422276567865   -6.11350516520664    0.10063293868440
H        -0.50830775149188   -4.32432313898175    0.11968956483046
H        -4.35037974474268   -0.49746945316383    0.00786965065012
C         3.65174983467513    1.70668936327418    0.02241364527670
C         4.01715044676819    3.03858388281694    0.06642497062140
C         3.03805896232196    4.01443539023311    0.09581571472504
C         1.70680146244894    3.64454152671427    0.07714515729588
H         4.43532321756729    0.96471050497477    0.00661726116003
H         5.06213650248982    3.30986090819566    0.08074215712277
H         3.30573100160112    5.05970904890164    0.13481504555227
H         0.96176952695061    4.42483651843344    0.10611161258154
N        -0.00000000000001    0.00000000000000    2.10000000000000
H        -0.92756456261836    0.28665739908321    2.39566480906923
H         0.11753759529704   -0.97253662826730    2.36618209495636
H         0.68964458100972    0.56069168288535    2.58786639203756
O         0.00000000000000    0.00000000000001   -1.97999999999999
H        -0.93093867017216    0.14083285740452   -2.20900142469374
H         0.18164673493039   -0.91971971077002   -2.22319677090846
