55
 energy: -88.350938537194 gnorm: 0.001341801669 xtb: 6.4.1 (conda-forge)
Fe        0.00000000000000    0.00000000000000    0.00000000000000
C         0.58091400000000    4.18873600000000   -0.51752000000000
C         0.70529300000000    2.87807400000000   -0.87133500000000
N         0.00000000000000    2.09876400000000    0.00000000000000
C        -0.54226900000000    2.92886200000000    0.86693600000000
N        -0.21409300000000    4.20237000000000    0.58730000000000
H        -0.49754000000000    5.02364800000000    1.09923700000000
H         0.98707500000000    5.07817300000000   -0.95184400000000
H         1.25245400000000    2.45699400000000   -1.68775500000000
H        -1.16237500000000    2.64454500000000    1.69183500000000
C         4.16510200000000    0.50672800000000    0.67047400000000
C         2.86372800000000    0.91457900000000    0.66582400000000
N         2.09876400000000    0.00000000000000    0.00000000000000
C         2.92721600000000   -0.94771800000000   -0.38684000000000
N         4.18651900000000   -0.67663800000000   -0.00213900000000
H         5.00450100000000   -1.23930600000000   -0.18014200000000
H         5.04397500000000    0.95341400000000    1.08603300000000
H         2.43848900000000    1.79682100000000    1.09603100000000
H         2.65206000000000   -1.82258100000000   -0.93960300000000
C         0.01395600000000   -4.22146000000000   -0.68721900000000
C         0.21327300000000   -2.92611600000000   -1.06426400000000
N         0.00000000000000   -2.09876400000000    0.00000000000000
C        -0.32244500000000   -2.88656700000000    1.00458400000000
N        -0.32582500000000   -4.17717200000000    0.62914900000000
H        -0.54235100000000   -4.97334600000000    1.20938500000000
H         0.08386100000000   -5.13642500000000   -1.23721600000000
H         0.49198700000000   -2.54955200000000   -2.02581300000000
H        -0.54959800000000   -2.55958600000000    1.99855600000000
C        -4.26243400000000   -0.53740100000000    0.06051300000000
C        -3.00765400000000   -0.91755600000000    0.43815400000000
N        -2.09876400000000    0.00000000000000    0.00000000000000
C        -2.79637200000000    0.91972000000000   -0.63706100000000
N        -4.10898400000000    0.63007100000000   -0.62196000000000
H        -4.85102100000000    1.17655900000000   -1.03231000000000
H        -5.21678300000000   -0.99394000000000    0.21879800000000
H        -2.71342900000000   -1.78154000000000    0.99515200000000
H        -2.38317800000000    1.78361900000000   -1.11641600000000
C        -0.78822300000000    0.21984700000000    4.26773500000000
C        -1.10081600000000    0.29866400000000    2.94312000000000
N         0.00000000000000    0.00000000000000    2.19127600000000
C         0.96071700000000   -0.25668800000000    3.05145100000000
N         0.52494800000000   -0.13434100000000    4.31794000000000
H         1.06536700000000   -0.27133100000000    5.15833500000000
H        -1.38151200000000    0.38273000000000    5.14305700000000
H        -2.04368100000000    0.53358200000000    2.49586000000000
H         1.96283000000000   -0.53342600000000    2.79626000000000
C         0.81672300000000    0.01604700000000   -4.27452000000000
C         1.11478000000000    0.20960100000000   -2.95842300000000
N         0.00000000000000    0.00000000000000   -2.19750800000000
C        -0.95407700000000   -0.31978900000000   -3.04399100000000
N        -0.50148300000000   -0.31989400000000   -4.31029300000000
H        -1.03244700000000   -0.52708400000000   -5.14230100000000
H         1.42323100000000    0.08942300000000   -5.15275900000000
H         2.05651200000000    0.47268300000000   -2.52483500000000
H        -1.96132600000000   -0.56667500000000   -2.77851600000000
