43
 energy: -70.653072595401 gnorm: 0.000683633805 xtb: 6.4.1 (conda-forge)
Fe        0.00000000000000    0.00000000000000    0.00000000000000
O        -0.01149900000000    2.15610800000000   -0.00021900000000
C         1.04844867263032    2.81872419467203   -0.00511820180692
C         0.91386976438646    4.34893111554403   -0.01413637425081
C         2.37510057388905    2.35356021023101   -0.00705282171340
C         2.83615726433203    1.02824761288009   -0.00640136788049
O         2.15963600000000   -0.02555200000000    0.00027900000000
C         4.36033859577146    0.84819324901052   -0.01146937010734
H        -0.13941332853817    4.61598184051044   -0.01251327227091
H         1.38984684958325    4.76359343471380   -0.90079578136719
H         1.39395890414057    4.77226128443885    0.86598199341385
H         4.88967484995767    1.79709553586543   -0.01298968110562
H         4.64258877231856    0.27401971300111   -0.89160481757585
H         4.64944308868039    0.27381153876627    0.86666267328780
H         3.13552579632651    3.12461491196168   -0.01259414155408
O        -0.00019200000000   -2.15469700000000   -0.01108200000000
C        -0.00914374272424   -2.81844483083146    1.04821959115355
C        -0.02264003037949   -4.34838651435874    0.91245315639782
C        -0.01235992716462   -2.35379569859036    2.37512541657269
C        -0.01030030160502   -1.02846402582215    2.83575450922437
O         0.00024500000000    0.02494600000000    2.15828000000000
C        -0.01984754965071   -0.84731165488380    4.35969554281193
H        -0.01904219068786   -4.61467094449933   -0.14102250360105
H        -0.91170313806835   -4.76081923565635    1.38582642799941
H         0.85507014057674   -4.77459461520955    1.39443802616155
H        -0.02513305929191   -1.79590255492968    4.88955875164573
H        -0.89951549389753   -0.27093965393892    4.63894926990388
H         0.85868561696458   -0.27473916572552    4.65117507893483
H        -0.02162087763657   -3.12486968337214    3.13545574875368
O        -2.15432100000000   -0.00016300000000    0.01021000000000
C        -2.81959709174361   -0.01307822173053   -1.04827549807748
C        -4.34917312959329   -0.03063776957110   -0.91052610495698
C        -2.35602228534685   -0.01709609444969   -2.37536113165427
C        -1.03043643901646   -0.01430114596505   -2.83535547509330
O         0.02207600000000    0.00018700000000   -2.15656900000000
C        -0.84790163105754   -0.02826095132881   -4.35893980698025
H        -4.61419780120539   -0.02528583002374    0.14326508866826
H        -4.75979834319802   -0.92179995998748   -1.38144146164117
H        -4.77806642304972    0.84496099098594   -1.39402355068637
H        -1.79608568370197   -0.03692734729229   -4.88944503705309
H        -0.26946069661516   -0.90749537824136   -4.63519573620500
H        -0.27700127958591    0.85073398819437   -4.65235679804229
H        -3.12717557733000   -0.03004141555442   -3.13549810808003
