26
	Energy:      56.3012172
N          0.30052        7.62615       18.05073
C          1.44043        7.72531       17.31949
H          1.31671        7.96376       16.26734
C          2.69774        7.53611       17.86803
H          3.60169        7.61705       17.27236
N          2.86735        7.24672       19.17797
C          1.72944        7.14511       19.91186
H          1.90161        6.96210       20.95987
C          0.47295        7.31478       19.35445
N         -0.74304        7.21533       20.12972
C         -1.86729        7.64374       19.54957
N         -2.87510        7.58925       20.42138
C         -2.41634        7.01889       21.59693
C         -1.04599        6.74461       21.40514
C         -4.22362        8.03189       20.12172
H         -4.26009        8.45881       19.11560
H         -4.52276        8.79413       20.84615
H         -4.90380        7.17766       20.17571
C         -0.30110        6.10048       22.39498
C         -0.97517        5.78902       23.58578
C         -2.33415        6.09350       23.77580
C         -3.08980        6.71351       22.77654
H         -2.81069        5.82800       24.72048
H         -4.14136        6.93663       22.90949
H          0.73633        5.82038       22.27321
H         -0.43144        5.28730       24.38843
